 Gaussian 03, Revision B.05,
 Gaussian 03:  x86-Linux-G03RevB.05 24-Oct-2003

 ----------------------------------------
 #p freq hf/3-21g scf=tight symmetry=none
 ----------------------------------------

 -------------------
 Title Card Required
 -------------------
 Symbolic Z-matrix:
 Charge =  0 Multiplicity = 1

                          Input orientation:
 ---------------------------------------------------------------------
 Center     Atomic     Atomic              Coordinates (Angstroms)
 Number     Number      Type              X           Y           Z
 ---------------------------------------------------------------------
    1          1             0        3.229746   -0.721527   -1.928135
    2          6             0        3.000246   -0.727153   -0.874568
    3          1             0        3.817476   -0.279410   -0.321335
    4          1             0        2.875774   -1.750365   -0.537839
    5          6             0        1.723592    0.053866   -0.650645
    6          8             0        1.089166    0.573608   -1.562144
    7          7             0        1.323542    0.138917    0.636796
    8          1             0        1.819584   -0.349358    1.349750
    9          6             0        0.153372    0.928894    1.028177
   10          1             0        0.125036    1.819926    0.417356
   11          1             0        0.242883    1.196004    2.068009
   12          6             0       -1.154187    0.154808    0.862401
   13          8             0       -1.850594   -0.153698    1.816137
   14          7             0       -1.461668   -0.139144   -0.412578
   15          1             0       -0.840534    0.149667   -1.141670
   16          6             0       -2.676498   -0.886611   -0.723711
   17          1             0       -2.737838   -1.012496   -1.795077
   18          1             0       -3.554082   -0.356499   -0.376536
   19          1             0       -2.664391   -1.860552   -0.250593
 ---------------------------------------------------------------------

 SCF Done:  E(RHF) =  -451.294069169     A.U. after   15 cycles

 Alpha  occ. eigenvalues --  -20.43669 -20.40519 -15.52493 -15.48324 -11.31938
 Alpha  occ. eigenvalues --  -11.28325 -11.22137 -11.19082 -11.18902  -1.40965
 Alpha  occ. eigenvalues --   -1.37866  -1.24925  -1.21183  -1.04601  -0.98494
 Alpha  occ. eigenvalues --   -0.92655  -0.81063  -0.77155  -0.72168  -0.70085
 Alpha  occ. eigenvalues --   -0.66996  -0.63078  -0.62831  -0.60956  -0.58630
 Alpha  occ. eigenvalues --   -0.57775  -0.56615  -0.55657  -0.53650  -0.52999
 Alpha  occ. eigenvalues --   -0.50361  -0.43477  -0.42506  -0.37685  -0.36349
 Alpha virt. eigenvalues --    0.17851   0.20769   0.24684   0.28994   0.29866
 Alpha virt. eigenvalues --    0.30878   0.32346   0.33369   0.34487   0.34877
 Alpha virt. eigenvalues --    0.37087   0.38769   0.41240   0.43011   0.46600

 Mulliken atomic charges:
              1
     1  H    0.263720
     2  C   -0.684756
     3  H    0.239149
     4  H    0.239608
     5  C    0.857412
     6  O   -0.654686
     7  N   -0.888494
     8  H    0.368252
     9  C   -0.269595
    10  H    0.266643
    11  H    0.263089
    12  C    0.867869
    13  O   -0.645730
    14  N   -0.928304
    15  H    0.398269
    16  C   -0.335129
    17  H    0.204062
    18  H    0.221799
    19  H    0.216823
 Sum of Mulliken charges=   0.00000

 Dipole moment (field-independent basis, Debye):
    X=     3.8712    Y=    -0.9289    Z=    -0.3760  Tot=     3.9988
 Quadrupole moment (field-independent basis, Debye-Ang):
   XX=   -48.7010   YY=   -52.3926   ZZ=   -61.4363
   XY=    -2.9818   XZ=    10.8892   YZ=     4.3431

  Exact polarizability:  63.582  -0.410  44.870  -2.262   0.734  65.414
 Approx polarizability:  47.976  -0.870  39.063  -1.702  -4.135  63.181

                     1                      2                      3
                     A                      A                      A
 Frequencies --    33.3072                74.2127                82.6580
 Red. masses --     1.0851                 1.5306                 4.7266
 Frc consts  --     0.0007                 0.0050                 0.0190
 IR Inten    --     1.8233                 6.1815                 7.2635
 Raman Activ --     0.2763                 0.7759                 0.8246

                     4                      5                      6
                     A                      A                      A
 Frequencies --   100.4553               141.5106               189.5741
 Red. masses --     1.6693                 4.7707                 3.4980
 Frc consts  --     0.0099                 0.0563                 0.0741
 IR Inten    --     2.0591                16.6126                 2.6735
 Raman Activ --     0.5435                 0.9239                 0.2806

                     7                      8                      9
                     A                      A                      A
 Frequencies --   244.4921               292.4041               326.0381
 Red. masses --     4.7793                 3.0539                 4.0720
 Frc consts  --     0.1683                 0.1538                 0.2550
 IR Inten    --     3.9955                 9.4082                 9.7791
 Raman Activ --     0.6101                 0.1551                 1.7098

                    10                     11                     12
                     A                      A                      A
 Frequencies --   400.3612               499.2275               621.1643
 Red. masses --     3.2430                 2.7808                 1.4769
 Frc consts  --     0.3063                 0.4083                 0.3357
 IR Inten    --     8.2933                36.4966                77.2665
 Raman Activ --     1.1934                 1.6118                 2.6423

                    13                     14                     15
                     A                      A                      A
 Frequencies --   646.3979               675.2564               696.4188
 Red. masses --     2.4769                 3.1807                 3.0646
 Frc consts  --     0.6098                 0.8545                 0.8757
 IR Inten    --    53.0067                12.6991                48.7399
 Raman Activ --     5.3191                 2.5941                 5.2629

                    16                     17                     18
                     A                      A                      A
 Frequencies --   840.3828               875.3112               905.0188
 Red. masses --     1.2691                 3.4941                 2.9926
 Frc consts  --     0.5281                 1.5773                 1.4441
 IR Inten    --   130.5613                76.0683                 5.6767
 Raman Activ --     0.0957                 2.4405                13.0631

                    19                     20                     21
                     A                      A                      A
 Frequencies --   951.8274              1059.5464              1093.0240
 Red. masses --     3.5733                 2.4246                 3.4950
 Frc consts  --     1.9074                 1.6037                 2.4601
 IR Inten    --     4.2343                 9.8498                 2.6149
 Raman Activ --     5.2124                 1.2538                 1.9544

                    22                     23                     24
                     A                      A                      A
 Frequencies --  1175.8726              1193.6184              1200.6256
 Red. masses --     2.6041                 1.7643                 2.6432
 Frc consts  --     2.1214                 1.4810                 2.2449
 IR Inten    --     8.7093                23.1314                12.5991
 Raman Activ --     2.8899                 0.6855                 4.6271

                    25                     26                     27
                     A                      A                      A
 Frequencies --  1274.0506              1312.5721              1370.2255
 Red. masses --     1.2812                 1.6578                 1.9885
 Frc consts  --     1.2253                 1.6828                 2.1997
 IR Inten    --     0.1836                 1.8143                64.2637
 Raman Activ --     4.1131                 5.8152                 4.6145

                    28                     29                     30
                     A                      A                      A
 Frequencies --  1405.7068              1446.4040              1512.3567
 Red. masses --     2.3020                 1.5204                 1.2886
 Frc consts  --     2.6801                 1.8740                 1.7366
 IR Inten    --   184.8132                28.1331                 7.2062
 Raman Activ --     2.0424                 5.2387                 1.6055

                    31                     32                     33
                     A                      A                      A
 Frequencies --  1560.1743              1617.0352              1619.3032
 Red. masses --     1.2162                 1.1756                 1.1725
 Frc consts  --     1.7442                 1.8111                 1.8115
 IR Inten    --    34.9633                 7.3061                94.6657
 Raman Activ --     3.2697                12.9318                14.6490

                    34                     35                     36
                     A                      A                      A
 Frequencies --  1636.3698              1655.9895              1666.3180
 Red. masses --     1.0688                 1.0435                 1.0439
 Frc consts  --     1.6862                 1.6861                 1.7078
 IR Inten    --    13.3759                11.3397                 5.3913
 Raman Activ --     9.2514                21.1847                25.7880

                    37                     38                     39
                     A                      A                      A
 Frequencies --  1679.2780              1691.3720              1727.7464
 Red. masses --     1.5327                 1.0806                 1.5409
 Frc consts  --     2.5466                 1.8214                 2.7102
 IR Inten    --   159.8976                 5.3980               312.0560
 Raman Activ --    14.0354                12.8688                 9.4270

                    40                     41                     42
                     A                      A                      A
 Frequencies --  1854.0854              1897.2190              3207.8685
 Red. masses --     5.9686                 5.9771                 1.0323
 Frc consts  --    12.0889                12.6758                 6.2588
 IR Inten    --   137.9232               294.3490                34.7529
 Raman Activ --     3.1693                 1.9690                98.9391

                    43                     44                     45
                     A                      A                      A
 Frequencies --  3213.1690              3257.8723              3262.6199
 Red. masses --     1.0380                 1.1035                 1.0607
 Frc consts  --     6.3142                 6.9005                 6.6523
 IR Inten    --     2.8807                36.0504                 9.8726
 Raman Activ --    97.4378                58.2352                61.4500

                    46                     47                     48
                     A                      A                      A
 Frequencies --  3268.4128              3289.4130              3328.1931
 Red. masses --     1.0998                 1.1024                 1.0981
 Frc consts  --     6.9219                 7.0280                 7.1666
 IR Inten    --     7.1809                24.2547                 3.3253
 Raman Activ --    61.1678                63.1927                62.0694

                    49                     50                     51
                     A                      A                      A
 Frequencies --  3333.1914              3764.0439              3830.7328
 Red. masses --     1.1049                 1.0807                 1.0786
 Frc consts  --     7.2326                 9.0216                 9.3253
 IR Inten    --     5.7652               187.3709                56.5959
 Raman Activ --    59.2915                42.0890                48.7267

 - Thermochemistry -
 -------------------
 Temperature   298.150 Kelvin.  Pressure   1.00000 Atm.
 Atom  1 has atomic number  1 and mass   1.00783

 Molecular mass:   130.07423 amu.
 Principal axes and moments of inertia in atomic units:
                           1         2         3
     EIGENVALUES --   627.855121803.845342155.64207
           X            0.95955   0.25938  -0.10949
           Y            0.04071   0.25696   0.96556
           Z           -0.27858   0.93096  -0.23601
 This molecule is an asymmetric top.
 Rotational symmetry number  1.
 Warning -- assumption of classical behavior for rotation
           may cause significant error
 Rotational temperatures (Kelvin)      0.13795     0.04802     0.04018
 Rotational constants (GHZ):           2.87445     1.00050     0.83722
 Zero-point vibrational energy     448602.2 (Joules/Mol)
                                  107.21849 (Kcal/Mol)
 Warning -- explicit consideration of  11 degrees of freedom as
           vibrations may cause significant error
 Vibrational temperatures:     47.92   106.78   118.93   144.53   203.60
          (Kelvin)            272.75   351.77   420.70   469.10   576.03
                              718.28   893.72   930.02   971.54  1001.99
                             1209.12  1259.38  1302.12  1369.47  1524.45
                             1572.62  1691.82  1717.35  1727.43  1833.07
                             1888.50  1971.45  2022.50  2081.05  2175.94
                             2244.74  2326.55  2329.81  2354.37  2382.60
                             2397.46  2416.10  2433.50  2485.84  2667.61
                             2729.67  4615.40  4623.03  4687.35  4694.18
                             4702.51  4732.73  4788.52  4795.71  5415.61
                             5511.56

 Zero-point correction=                           0.170864 (Hartree/Particle)
 Thermal correction to Energy=                    0.180864
 Thermal correction to Enthalpy=                  0.181808
 Thermal correction to Gibbs Free Energy=         0.134139
 Sum of electronic and zero-point Energies=           -451.123206
 Sum of electronic and thermal Energies=              -451.113205
 Sum of electronic and thermal Enthalpies=            -451.112261
 Sum of electronic and thermal Free Energies=         -451.159930

                     E (Thermal)             CV                S
                      KCal/Mol        Cal/Mol-Kelvin    Cal/Mol-Kelvin
 Total                  113.494             33.436            100.330
 Electronic               0.000              0.000              0.000
 Translational            0.889              2.981             40.502
 Rotational               0.889              2.981             29.280
 Vibrational            111.717             27.474             30.547
 Vibration  1             0.594              1.983              5.622
 Vibration  2             0.599              1.966              4.038
 Vibration  3             0.600              1.961              3.827
 Vibration  4             0.604              1.949              3.445
 Vibration  5             0.615              1.912              2.783
 Vibration  6             0.633              1.854              2.232
 Vibration  7             0.660              1.772              1.770
 Vibration  8             0.688              1.688              1.460
 Vibration  9             0.710              1.623              1.280
 Vibration 10             0.766              1.469              0.961
 Vibration 11             0.855              1.252              0.660

 Normal termination of Gaussian 03 at Sat Apr 19 10:03:31 2014.
