User input:
--------------------------------------------------------------
$molecule
0 1
 H     3.651033455538    -0.156618464153    -1.430803067283
 C     2.942099410034    -0.764568845263    -0.876910435899
 H     3.399826186225    -1.096091666757     0.050012603085
 H     2.696555228693    -1.628431019111    -1.487130190777
 C     1.694004900577     0.038754118370    -0.664840341354
 O     1.050072308092     0.499255868784    -1.605999602181
 N     1.316392321089     0.227792320544     0.615711222197
 H     1.832371882520    -0.224874818832     1.346988157337
 C     0.151089827102     1.010549697318     0.966178706913
 H     0.118248164067     1.875593487450     0.306852503234
 H     0.246889741965     1.340058179353     1.994503164010
 C    -1.147642954119     0.228967818212     0.858500984291
 O    -1.851554864742     0.001713813299     1.835575789513
 N    -1.441569640308    -0.177669446051    -0.386740582321
 H    -0.783896590279     0.048966495238    -1.119106815578
 C    -2.624399908010    -0.960666908444    -0.646938239847
 H    -2.677147782698    -1.163094048156    -1.710726606511
 H    -3.515235327429    -0.419775432819    -0.339462840021
 H    -2.596509970536    -1.900984683961    -0.101869188673
$end

$rem
jobtype freq
exchange hf
basis 3-21g
symmetry off
sym_ignore true
$end

--------------------------------------------------------------

   16    -451.2920993557      5.86E-09  00000 Convergence criterion met
 Total energy in the final basis set = -451.2920993557
 Frequency:        75.28                  91.02                 150.40
 Force Cnst:      0.0106                 0.0344                 0.0441
 Red. Mass:       3.1683                 7.0552                 3.3084
 IR Intens:        6.646                  9.318                 15.991
 Frequency:       165.37                 185.19                 199.25
 Force Cnst:      0.0251                 0.0375                 0.0250
 Red. Mass:       1.5548                 1.8583                 1.0668
 IR Intens:        1.463                  1.754                  0.626
 Frequency:       246.48                 297.54                 335.37
 Force Cnst:      0.1781                 0.1708                 0.2845
 Red. Mass:       4.9764                 3.2739                 4.2925
 IR Intens:        4.474                  9.914                 12.300
 Frequency:       415.60                 515.02                 645.20
 Force Cnst:      0.3303                 0.4775                 0.9066
 Red. Mass:       3.2462                 3.0555                 3.6965
 IR Intens:        7.874                 36.360                  1.611
 Frequency:       684.14                 693.41                 721.27
 Force Cnst:      0.9221                 0.4919                 0.5265
 Red. Mass:       3.3437                 1.7365                 1.7176
 IR Intens:       19.468                 12.640                154.420
 Frequency:       873.80                 919.36                 943.52
 Force Cnst:      2.0594                 1.4898                 0.6117
 Red. Mass:       4.5779                 2.9916                 1.1663
 IR Intens:       11.854                  1.085                185.555
 Frequency:       961.56                1101.58                1126.67
 Force Cnst:      1.9992                 1.8040                 1.8457
 Red. Mass:       3.6698                 2.5231                 2.4678
 IR Intens:        3.820                 10.915                  8.250
 Frequency:      1203.21                1223.22                1228.12
 Force Cnst:      2.2553                 1.5281                 2.6795
 Red. Mass:       2.6440                 1.7334                 3.0152
 IR Intens:        8.422                 29.785                  9.472
 Frequency:      1295.93                1329.94                1395.86
 Force Cnst:      1.2653                 1.7102                 2.4474
 Red. Mass:       1.2787                 1.6410                 2.1319
 IR Intens:        0.254                  0.598                 72.814
 Frequency:      1430.28                1466.43                1538.13
 Force Cnst:      2.7602                 1.8864                 1.8222
 Red. Mass:       2.2901                 1.4889                 1.3073
 IR Intens:      183.971                 27.749                  7.955
 Frequency:      1582.81                1629.44                1639.88
 Force Cnst:      1.7536                 1.8576                 1.7820
 Red. Mass:       1.1880                 1.1874                 1.1247
 IR Intens:       45.902                 11.875                 28.134
 Frequency:      1646.17                1651.88                1668.24
 Force Cnst:      1.6666                 1.7699                 1.7091
 Red. Mass:       1.0438                 1.1009                 1.0423
 IR Intens:        8.048                 34.903                  5.521
 Frequency:      1695.23                1699.93                1762.74
 Force Cnst:      1.8567                 2.7553                 3.0654
 Red. Mass:       1.0966                 1.6183                 1.6744
 IR Intens:       27.146                177.032                359.445
 Frequency:      1839.08                1884.47                3166.94
 Force Cnst:      9.2916                 8.8543                 6.1087
 Red. Mass:       4.6627                 4.2318                 1.0338
 IR Intens:      124.247                248.202                 37.853
 Frequency:      3188.25                3192.52                3212.45
 Force Cnst:      6.1973                 6.3830                 6.7031
 Red. Mass:       1.0348                 1.0629                 1.1024
 IR Intens:        3.670                  8.040                 40.847
 Frequency:      3250.61                3254.69                3256.29
 Force Cnst:      6.8561                 6.8589                 6.8899
 Red. Mass:       1.1013                 1.0990                 1.1029
 IR Intens:       24.857                  2.182                 13.221
 Frequency:      3262.41                3635.55                3752.44
 Force Cnst:      6.9083                 8.4234                 8.9477
 Red. Mass:       1.1017                 1.0817                 1.0785
 IR Intens:        6.560                233.809                 53.352
 Total job time:  55.00s(wall), 54.70s(cpu)
        *  Thank you very much for using Q-Chem.  Have a nice day.  *

User input: 2 of 3

/home/leeping/opt/qchem-4.2/exe/qcprog.exe .frequency.qcin.27545.qcin.2 ./qchem27545/
                  Welcome to Q-Chem
     A Quantum Leap Into The Future Of Chemistry

 Y. Shao, L. Fusti-Molnar, Y. Jung, J. Kussmann, C. Ochsenfeld, S. T. Brown,
 A. T. B. Gilbert, L. V. Slipchenko, S. V. Levchenko, D. P. O'Neill,
 R. A. DiStasio Jr., R. C. Lochan, T. Wang, G. J. O. Beran, N. A. Besley,
 J. M. Herbert, C. Y. Lin, T. Van Voorhis, S. H. Chien, A. Sodt, R. P. Steele,
 V. A. Rassolov, P. E. Maslen, P. P. Korambath, R. D. Adamson, B. Austin,
 J. Baker, E. F. C. Byrd, H. Dachsel, R. J. Doerksen, A. Dreuw, B. D. Dunietz,
 A. D. Dutoi, T. R. Furlani, S. R. Gwaltney, A. Heyden, S. Hirata, C.-P. Hsu,
 G. Kedziora, R. Z. Khaliullin, P. Klunzinger, A. M. Lee, M. S. Lee, W. Liang,
 I. Lotan, N. Nair, B. Peters, E. I. Proynov, P. A. Pieniazek, Y. M. Rhee,
 J. Ritchie, E. Rosta, C. D. Sherrill, A. C. Simmonett, J. E. Subotnik,
 H. L. Woodcock III, W. Zhang, A. T. Bell, A. K. Chakraborty, D. M. Chipman,
 F. J. Keil, A. Warshel, W. J. Hehre, H. F. Schaefer III, J. Kong,
 A. I. Krylov, P. M. W. Gill, M. Head-Gordon

 Additional authors for Version 3.1:
 Z. Gan, Y. Zhao, N. E. Schultz, D. Truhlar, E. Epifanovsky, M. Oana

 Additional authors for Version 3.2:
 R. Baer, B. R. Brooks, D. Casanova, J.-D. Chai, C.-L. Cheng, C. Cramer,
 D. Crittenden, A. Ghysels, G. Hawkins, E. G. Hohenstein, C. Kelley,
 W. Kurlancheek, D. Liotard, E. Livshits, P. Manohar, A. Marenich,
 D. Neuhauser, R. Olson, M. A. Rohrdanz, K. S. Thanthiriwatte, A. J. W. Thom,
 V. Vanovschi, C. F. Williams, Q. Wu, Z.-Q. You

 Additional authors for Version 4.0:
 A. Aspuru-Guzik, Y. Bernard, C. Chang, J. Deng, A. Dreuw, M. Diedenhofen,
 R. G. Edgar, D. Ghosh, W. A. Goddard III, M. Goldey, L. D. Jacobson,
 M. Gordon, B. Kaduk, I. Kaliman, K. Khistyaev, R. King, A. Klamt,
 D. Kosenkov, T. Kus, D. Lambrecht, A. Landau, A. W. Lange, K. Lawler, F. Liu,
 J. Liu, R. Olivares-Amaya, S. P. Mao, J. Parkhill, N. Russ, M. Schmidt,
 N. Shenvi, D. Small, Y. C. Su, E. Sundstrom, L. Vogt, O. Vydrov, M. Watson,
 M. Wormit, X. Xu, S. Yeganeh, I. Y. Zhang, D. Zuev

 Additional authors for Version 4.1:
 X. Feng, M. W. D. Hanson-Heine, P. Horn, H. Ji, A. Laurent, R. Peverati,
 N. Mardirossian, N. Sergueev, S. Sharada, P. Zimmerman

 Q-Chem, Version 4.1, Q-Chem, Inc., Pittsburgh, PA (2013).

 Parts of Q-Chem use Armadillo 3.6.2 (Piazza del Duomo).
 http://arma.sourceforge.net/

 Intel X86 EM64T Linux Version 4.1.2

 Q-chem begins on Sat Apr 19 09:23:22 2014

Host:
0

     Scratch files written to ./qchem27545//
 Mar714 |home|leeping|src -1
 Using version located at /home/leeping/opt/qchem-4.2/bin/qchem

Total Memory Limit in MB = 2000
Mega-Array Size in MB = 62
Finally everything over in PARseQInput

--------------------------------------------------------------
User input:
--------------------------------------------------------------

$molecule
read
$end

$rem
jobtype opt
exchange hf
basis 3-21g
symmetry off
sym_ignore true
geom_opt_hessian read
$end

--------------------------------------------------------------

   16    -451.2920993554      5.86E-09  00000 Convergence criterion met
 Total energy in the final basis set = -451.2920993554
   13    -451.2933069138      7.76E-09  00000 Convergence criterion met
 Total energy in the final basis set = -451.2933069138
   12    -451.2933211734      6.90E-09  00000 Convergence criterion met
 Total energy in the final basis set = -451.2933211734
   10    -451.2933252760      9.24E-09  00000 Convergence criterion met
 Total energy in the final basis set = -451.2933252760
   13    -451.2933499063      8.37E-09  00000 Convergence criterion met
 Total energy in the final basis set = -451.2933499063
   13    -451.2925563589      9.55E-09  00000 Convergence criterion met
 Total energy in the final basis set = -451.2925563589
   14    -451.2934108913      6.65E-09  00000 Convergence criterion met
   13    -451.2938667170      9.84E-09  00000 Convergence criterion met
 Total energy in the final basis set = -451.2938667170
   13    -451.2939612937      9.44E-09  00000 Convergence criterion met
 Total energy in the final basis set = -451.2939612937
   13    -451.2940342149      9.97E-09  00000 Convergence criterion met
 Total energy in the final basis set = -451.2940342149
   13    -451.2940664317      7.44E-09  00000 Convergence criterion met
 Total energy in the final basis set = -451.2940664317
   11    -451.2940689003      7.18E-09  00000 Convergence criterion met
 Total energy in the final basis set = -451.2940689003
    9    -451.2940691414      4.41E-09  00000 Convergence criterion met
 Total energy in the final basis set = -451.2940691414
 Final energy is   -451.294069141385
 **  OPTIMIZATION CONVERGED  **
        *  Thank you very much for using Q-Chem.  Have a nice day.  *

             Standard Nuclear Orientation (Angstroms)
    I     Atom           X                Y                Z
 ----------------------------------------------------------------
    1      H       3.2297461235    -0.7215266627    -1.9281348956
    2      C       3.0002455764    -0.7271526473    -0.8745680938
    3      H       3.8174763359    -0.2794098632    -0.3213351753
    4      H       2.8757741384    -1.7503653460    -0.5378390457
    5      C       1.7235924669     0.0538661681    -0.6506449746
    6      O       1.0891661046     0.5736077911    -1.5621440257
    7      N       1.3235417470     0.1389168077     0.6367958046
    8      H       1.8195842153    -0.3493579590     1.3497497140
    9      C       0.1533722579     0.9288935152     1.0281766084
   10      H       0.1250356257     1.8199257604     0.4173561309
   11      H       0.2428832586     1.1960043342     2.0680091051
   12      C      -1.1541868434     0.1548083807     0.8624013083
   13      O      -1.8505942449    -0.1536978583     1.8161371041
   14      N      -1.4616684609    -0.1391440224    -0.4125780138
   15      H      -0.8405343191     0.1496669469    -1.1416699436
   16      C      -2.6764978121    -0.8866112352    -0.7237107391
   17      H      -2.7378376732    -1.0124958785    -1.7950766983
   18      H      -3.5540815452    -0.3564994838    -0.3765364480
   19      H      -2.6643905636    -1.8605522826    -0.2505925018
 ----------------------------------------------------------------

   16    -451.2940691414      5.90E-09  00000 Convergence criterion met
 Total energy in the final basis set = -451.2940691414

                    Orbital Energies (a.u.)
 --------------------------------------------------------------

 Alpha MOs
 -- Occupied --
-20.437 -20.405 -15.525 -15.483 -11.319 -11.283 -11.221 -11.191
-11.189  -1.410  -1.379  -1.249  -1.212  -1.046  -0.985  -0.927
 -0.811  -0.772  -0.722  -0.701  -0.670  -0.631  -0.628  -0.610
 -0.586  -0.578  -0.566  -0.557  -0.536  -0.530  -0.504  -0.435
 -0.425  -0.377  -0.363

          Ground-State Mulliken Net Atomic Charges

     Atom                 Charge (a.u.)
  ----------------------------------------
      1 H                     0.263720
      2 C                    -0.684756
      3 H                     0.239148
      4 H                     0.239608
      5 C                     0.857412
      6 O                    -0.654686
      7 N                    -0.888494
      8 H                     0.368251
      9 C                    -0.269595
     10 H                     0.266643
     11 H                     0.263089
     12 C                     0.867869
     13 O                    -0.645730
     14 N                    -0.928304
     15 H                     0.398269
     16 C                    -0.335129
     17 H                     0.204062
     18 H                     0.221799
     19 H                     0.216823
  ----------------------------------------
  Sum of atomic charges =    -0.000000

                    Cartesian Multipole Moments
 -----------------------------------------------------------------
    Charge (ESU x 10^10)
                -0.0000
    Dipole Moment (Debye)
         X       3.8712      Y      -0.9289      Z      -0.3760
       Tot       3.9988
    Quadrupole Moments (Debye-Ang)
        XX     -48.7010     XY      -2.9818     YY     -52.3926
        XZ      10.8892     YZ       4.3431     ZZ     -61.4363

 Frequency:        33.31                  74.21                  82.66
 Force Cnst:      0.0007                 0.0050                 0.0190
 Red. Mass:       1.0851                 1.5306                 4.7266
 IR Intens:        1.824                  6.183                  7.265
 Frequency:       100.46                 141.51                 189.57
 Force Cnst:      0.0099                 0.0563                 0.0741
 Red. Mass:       1.6694                 4.7707                 3.4980
 IR Intens:        2.060                 16.617                  2.674
 Frequency:       244.49                 292.40                 326.04
 Force Cnst:      0.1683                 0.1538                 0.2550
 Red. Mass:       4.7793                 3.0539                 4.0720
 IR Intens:        3.996                  9.411                  9.781
 Frequency:       400.36                 499.23                 621.17
 Force Cnst:      0.3063                 0.4083                 0.3357
 Red. Mass:       3.2430                 2.7808                 1.4769
 IR Intens:        8.295                 36.506                 77.288
 Frequency:       646.40                 675.26                 696.42
 Force Cnst:      0.6098                 0.8545                 0.8757
 Red. Mass:       2.4769                 3.1807                 3.0647
 IR Intens:       53.017                 12.702                 48.752
 Frequency:       840.38                 875.31                 905.02
 Force Cnst:      0.5281                 1.5774                 1.4442
 Red. Mass:       1.2691                 3.4942                 2.9926
 IR Intens:      130.596                 76.084                  5.678
 Frequency:       951.83                1059.55                1093.03
 Force Cnst:      1.9074                 1.6037                 2.4602
 Red. Mass:       3.5733                 2.4246                 3.4950
 IR Intens:        4.235                  9.852                  2.616
 Frequency:      1175.88                1193.62                1200.63
 Force Cnst:      2.1214                 1.4810                 2.2449
 Red. Mass:       2.6041                 1.7643                 2.6432
 IR Intens:        8.711                 23.137                 12.602
 Frequency:      1274.05                1312.57                1370.23
 Force Cnst:      1.2253                 1.6828                 2.1997
 Red. Mass:       1.2812                 1.6578                 1.9885
 IR Intens:        0.184                  1.815                 64.278
 Frequency:      1405.71                1446.41                1512.36
 Force Cnst:      2.6801                 1.8741                 1.7366
 Red. Mass:       2.3020                 1.5204                 1.2887
 IR Intens:      184.857                 28.140                  7.208
 Frequency:      1560.18                1617.04                1619.30
 Force Cnst:      1.7442                 1.8111                 1.8115
 Red. Mass:       1.2162                 1.1756                 1.1725
 IR Intens:       34.972                  7.308                 94.686
 Frequency:      1636.37                1655.99                1666.32
 Force Cnst:      1.6862                 1.6861                 1.7078
 Red. Mass:       1.0688                 1.0436                 1.0439
 IR Intens:       13.379                 11.342                  5.393
 Frequency:      1679.28                1691.37                1727.75
 Force Cnst:      2.5466                 1.8214                 2.7102
 Red. Mass:       1.5327                 1.0806                 1.5410
 IR Intens:      159.940                  5.399                312.134
 Frequency:      1854.09                1897.22                3207.87
 Force Cnst:     12.0891                12.6761                 6.2589
 Red. Mass:       5.9687                 5.9772                 1.0323
 IR Intens:      137.958                294.423                 34.761
 Frequency:      3213.17                3257.88                3262.62
 Force Cnst:      6.3142                 6.9006                 6.6524
 Red. Mass:       1.0380                 1.1035                 1.0607
 IR Intens:        2.881                 36.059                  9.875
 Frequency:      3268.42                3289.42                3328.20
 Force Cnst:      6.9219                 7.0280                 7.1667
 Red. Mass:       1.0998                 1.1024                 1.0981
 IR Intens:        7.183                 24.260                  3.326
 Frequency:      3333.19                3764.05                3830.74
 Force Cnst:      7.2326                 9.0216                 9.3253
 Red. Mass:       1.1049                 1.0807                 1.0786
 IR Intens:        5.767                187.416                 56.610

 STANDARD THERMODYNAMIC QUANTITIES AT   298.15 K  AND     1.00 ATM

   This Molecule has  0 Imaginary Frequencies
   Zero point vibrational energy:      107.219 kcal/mol

   Atom    1 Element H  Has Mass    1.00783
   Atom    2 Element C  Has Mass   12.00000
   Atom    3 Element H  Has Mass    1.00783
   Atom    4 Element H  Has Mass    1.00783
   Atom    5 Element C  Has Mass   12.00000
   Atom    6 Element O  Has Mass   15.99491
   Atom    7 Element N  Has Mass   14.00307
   Atom    8 Element H  Has Mass    1.00783
   Atom    9 Element C  Has Mass   12.00000
   Atom   10 Element H  Has Mass    1.00783
   Atom   11 Element H  Has Mass    1.00783
   Atom   12 Element C  Has Mass   12.00000
   Atom   13 Element O  Has Mass   15.99491
   Atom   14 Element N  Has Mass   14.00307
   Atom   15 Element H  Has Mass    1.00783
   Atom   16 Element C  Has Mass   12.00000
   Atom   17 Element H  Has Mass    1.00783
   Atom   18 Element H  Has Mass    1.00783
   Atom   19 Element H  Has Mass    1.00783
   Molecular Mass:   130.074260 amu
   Principal axes and moments of inertia in atomic units:
                             1           2           3
    Eigenvalues --      627.85562  1803.84638  2155.64328
          X               0.95955     0.25938    -0.10949
          Y               0.04071     0.25696     0.96556
          Z              -0.27858     0.93096    -0.23601
   Rotational Symmetry Number is   1
   The Molecule is an Asymmetric Top
   Translational Enthalpy:        0.889 kcal/mol
   Rotational Enthalpy:           0.889 kcal/mol
   Vibrational Enthalpy:        111.717 kcal/mol
   gas constant (RT):             0.592 kcal/mol
   Translational Entropy:        40.502  cal/mol.K
   Rotational Entropy:           29.280  cal/mol.K
   Vibrational Entropy:          30.547  cal/mol.K

   Total Enthalpy:              114.087 kcal/mol
   Total Entropy:               100.329  cal/mol.K

 Total job time:  50.62s(wall), 50.51s(cpu)
        *  Thank you very much for using Q-Chem.  Have a nice day.  *
