User input:
--------------------------------------------------------------

$molecule
read
$end

$rem
jobtype freq
exchange hf
basis 3-21g
symmetry off
sym_ignore true
$end
--------------------------------------------------------------

             Standard Nuclear Orientation (Angstroms)
    I     Atom           X                Y                Z
 ----------------------------------------------------------------
    1      H       3.2297461235    -0.7215266627    -1.9281348956
    2      C       3.0002455764    -0.7271526473    -0.8745680938
    3      H       3.8174763359    -0.2794098632    -0.3213351753
    4      H       2.8757741384    -1.7503653460    -0.5378390457
    5      C       1.7235924669     0.0538661681    -0.6506449746
    6      O       1.0891661046     0.5736077911    -1.5621440257
    7      N       1.3235417470     0.1389168077     0.6367958046
    8      H       1.8195842153    -0.3493579590     1.3497497140
    9      C       0.1533722579     0.9288935152     1.0281766084
   10      H       0.1250356257     1.8199257604     0.4173561309
   11      H       0.2428832586     1.1960043342     2.0680091051
   12      C      -1.1541868434     0.1548083807     0.8624013083
   13      O      -1.8505942449    -0.1536978583     1.8161371041
   14      N      -1.4616684609    -0.1391440224    -0.4125780138
   15      H      -0.8405343191     0.1496669469    -1.1416699436
   16      C      -2.6764978121    -0.8866112352    -0.7237107391
   17      H      -2.7378376732    -1.0124958785    -1.7950766983
   18      H      -3.5540815452    -0.3564994838    -0.3765364480
   19      H      -2.6643905636    -1.8605522826    -0.2505925018
 ----------------------------------------------------------------

   16    -451.2940691414      5.90E-09  00000 Convergence criterion met
 Total energy in the final basis set = -451.2940691414

                    Orbital Energies (a.u.)
 --------------------------------------------------------------

 Alpha MOs
 -- Occupied --
-20.437 -20.405 -15.525 -15.483 -11.319 -11.283 -11.221 -11.191
-11.189  -1.410  -1.379  -1.249  -1.212  -1.046  -0.985  -0.927
 -0.811  -0.772  -0.722  -0.701  -0.670  -0.631  -0.628  -0.610
 -0.586  -0.578  -0.566  -0.557  -0.536  -0.530  -0.504  -0.435
 -0.425  -0.377  -0.363

          Ground-State Mulliken Net Atomic Charges

     Atom                 Charge (a.u.)
  ----------------------------------------
      1 H                     0.263720
      2 C                    -0.684756
      3 H                     0.239148
      4 H                     0.239608
      5 C                     0.857412
      6 O                    -0.654686
      7 N                    -0.888494
      8 H                     0.368251
      9 C                    -0.269595
     10 H                     0.266643
     11 H                     0.263089
     12 C                     0.867869
     13 O                    -0.645730
     14 N                    -0.928304
     15 H                     0.398269
     16 C                    -0.335129
     17 H                     0.204062
     18 H                     0.221799
     19 H                     0.216823
  ----------------------------------------
  Sum of atomic charges =    -0.000000

                    Cartesian Multipole Moments
 -----------------------------------------------------------------
    Charge (ESU x 10^10)
                -0.0000
    Dipole Moment (Debye)
         X       3.8712      Y      -0.9289      Z      -0.3760
       Tot       3.9988
    Quadrupole Moments (Debye-Ang)
        XX     -48.7010     XY      -2.9818     YY     -52.3926
        XZ      10.8892     YZ       4.3431     ZZ     -61.4363

 Frequency:        33.31                  74.21                  82.66
 Force Cnst:      0.0007                 0.0050                 0.0190
 Red. Mass:       1.0851                 1.5306                 4.7266
 IR Intens:        1.824                  6.183                  7.265
 Frequency:       100.46                 141.51                 189.57
 Force Cnst:      0.0099                 0.0563                 0.0741
 Red. Mass:       1.6694                 4.7707                 3.4980
 IR Intens:        2.060                 16.617                  2.674
 Frequency:       244.49                 292.40                 326.04
 Force Cnst:      0.1683                 0.1538                 0.2550
 Red. Mass:       4.7793                 3.0539                 4.0720
 IR Intens:        3.996                  9.411                  9.781
 Frequency:       400.36                 499.23                 621.17
 Force Cnst:      0.3063                 0.4083                 0.3357
 Red. Mass:       3.2430                 2.7808                 1.4769
 IR Intens:        8.295                 36.506                 77.288
 Frequency:       646.40                 675.26                 696.42
 Force Cnst:      0.6098                 0.8545                 0.8757
 Red. Mass:       2.4769                 3.1807                 3.0647
 IR Intens:       53.017                 12.702                 48.752
 Frequency:       840.38                 875.31                 905.02
 Force Cnst:      0.5281                 1.5774                 1.4442
 Red. Mass:       1.2691                 3.4942                 2.9926
 IR Intens:      130.596                 76.084                  5.678
 Frequency:       951.83                1059.55                1093.03
 Force Cnst:      1.9074                 1.6037                 2.4602
 Red. Mass:       3.5733                 2.4246                 3.4950
 IR Intens:        4.235                  9.852                  2.616
 Frequency:      1175.88                1193.62                1200.63
 Force Cnst:      2.1214                 1.4810                 2.2449
 Red. Mass:       2.6041                 1.7643                 2.6432
 IR Intens:        8.711                 23.137                 12.602
 Frequency:      1274.05                1312.57                1370.23
 Force Cnst:      1.2253                 1.6828                 2.1997
 Red. Mass:       1.2812                 1.6578                 1.9885
 IR Intens:        0.184                  1.815                 64.278
 Frequency:      1405.71                1446.41                1512.36
 Force Cnst:      2.6801                 1.8741                 1.7366
 Red. Mass:       2.3020                 1.5204                 1.2887
 IR Intens:      184.857                 28.140                  7.208
 Frequency:      1560.18                1617.04                1619.30
 Force Cnst:      1.7442                 1.8111                 1.8115
 Red. Mass:       1.2162                 1.1756                 1.1725
 IR Intens:       34.972                  7.308                 94.686
 Frequency:      1636.37                1655.99                1666.32
 Force Cnst:      1.6862                 1.6861                 1.7078
 Red. Mass:       1.0688                 1.0436                 1.0439
 IR Intens:       13.379                 11.342                  5.393
 Frequency:      1679.28                1691.37                1727.75
 Force Cnst:      2.5466                 1.8214                 2.7102
 Red. Mass:       1.5327                 1.0806                 1.5410
 IR Intens:      159.940                  5.399                312.134
 Frequency:      1854.09                1897.22                3207.87
 Force Cnst:     12.0891                12.6761                 6.2589
 Red. Mass:       5.9687                 5.9772                 1.0323
 IR Intens:      137.958                294.423                 34.761
 Frequency:      3213.17                3257.88                3262.62
 Force Cnst:      6.3142                 6.9006                 6.6524
 Red. Mass:       1.0380                 1.1035                 1.0607
 IR Intens:        2.881                 36.059                  9.875
 Frequency:      3268.42                3289.42                3328.20
 Force Cnst:      6.9219                 7.0280                 7.1667
 Red. Mass:       1.0998                 1.1024                 1.0981
 IR Intens:        7.183                 24.260                  3.326
 Frequency:      3333.19                3764.05                3830.74
 Force Cnst:      7.2326                 9.0216                 9.3253
 Red. Mass:       1.1049                 1.0807                 1.0786
 IR Intens:        5.767                187.416                 56.610

 STANDARD THERMODYNAMIC QUANTITIES AT   298.15 K  AND     1.00 ATM

   This Molecule has  0 Imaginary Frequencies
   Zero point vibrational energy:      107.219 kcal/mol

   Atom    1 Element H  Has Mass    1.00783
   Atom    2 Element C  Has Mass   12.00000
   Atom    3 Element H  Has Mass    1.00783
   Atom    4 Element H  Has Mass    1.00783
   Atom    5 Element C  Has Mass   12.00000
   Atom    6 Element O  Has Mass   15.99491
   Atom    7 Element N  Has Mass   14.00307
   Atom    8 Element H  Has Mass    1.00783
   Atom    9 Element C  Has Mass   12.00000
   Atom   10 Element H  Has Mass    1.00783
   Atom   11 Element H  Has Mass    1.00783
   Atom   12 Element C  Has Mass   12.00000
   Atom   13 Element O  Has Mass   15.99491
   Atom   14 Element N  Has Mass   14.00307
   Atom   15 Element H  Has Mass    1.00783
   Atom   16 Element C  Has Mass   12.00000
   Atom   17 Element H  Has Mass    1.00783
   Atom   18 Element H  Has Mass    1.00783
   Atom   19 Element H  Has Mass    1.00783
   Molecular Mass:   130.074260 amu
   Principal axes and moments of inertia in atomic units:
                             1           2           3
    Eigenvalues --      627.85562  1803.84638  2155.64328
          X               0.95955     0.25938    -0.10949
          Y               0.04071     0.25696     0.96556
          Z              -0.27858     0.93096    -0.23601
   Rotational Symmetry Number is   1
   The Molecule is an Asymmetric Top
   Translational Enthalpy:        0.889 kcal/mol
   Rotational Enthalpy:           0.889 kcal/mol
   Vibrational Enthalpy:        111.717 kcal/mol
   gas constant (RT):             0.592 kcal/mol
   Translational Entropy:        40.502  cal/mol.K
   Rotational Entropy:           29.280  cal/mol.K
   Vibrational Entropy:          30.547  cal/mol.K

   Total Enthalpy:              114.087 kcal/mol
   Total Entropy:               100.329  cal/mol.K

 Total job time:  50.62s(wall), 50.51s(cpu)
        *  Thank you very much for using Q-Chem.  Have a nice day.  *
